# vtk DataFile Version 2.0
sampleSurface
ASCII
DATASET POLYDATA
POINTS 4 float
5.5 0.1 0 5.5 0.1 2 5.6 0.1 2 5.6 0.1
0 
POLYGONS 1 5
4 0 1 2 3 
CELL_DATA 1
FIELD attributes 1
massFlowRate 1 1 float
1.11132e-06 
